
     Program PWSCF v.6.6 starts on 26Oct2020 at  0: 7:54 

     This program is part of the open-source Quantum ESPRESSO suite
     for quantum simulation of materials; please cite
         "P. Giannozzi et al., J. Phys.:Condens. Matter 21 395502 (2009);
         "P. Giannozzi et al., J. Phys.:Condens. Matter 29 465901 (2017);
          URL http://www.quantum-espresso.org", 
     in publications or presentations arising from this work. More details at
     http://www.quantum-espresso.org/quote

     Parallel version (MPI), running on     4 processors

     MPI processes distributed on     1 nodes
     R & G space division:  proc/nbgrp/npool/nimage =       4
     Fft bands division:     nmany     =       1
     Reading input from pw.in

     Current dimensions of program PWSCF are:
     Max number of different atomic species (ntypx) = 10
     Max number of k-points (npk) =  40000
     Max angular momentum in pseudopotentials (lmaxx) =  3
     file Pb.pbesol-dn-rrkjus_psl.1.0.0.UPF: wavefunction(s)  6S 5D renormalized
     file Cs.pbesol-spn-rrkjus_psl.1.0.0.UPF: wavefunction(s)  5S 6S renormalized
     Message from routine setup:
     At least one non s.o. pseudo

     Subspace diagonalization in iterative solution of the eigenvalue problem:
     a serial algorithm will be used


     Parallelization info
     --------------------
     sticks:   dense  smooth     PW     G-vecs:    dense   smooth      PW
     Min        1919     959    261               180790    63885    9067
     Max        1921     960    262               180793    63888    9068
     Sum        7681    3839   1045               723165   255545   36269



     bravais-lattice index     =            8
     lattice parameter (alat)  =      15.4925  a.u.
     unit-cell volume          =    5352.3908 (a.u.)^3
     number of atoms/cell      =           20
     number of atomic types    =            3
     number of electrons       =       296.00
     number of Kohn-Sham states=          296
     kinetic-energy cutoff     =      50.0000  Ry
     charge density cutoff     =     400.0000  Ry
     convergence threshold     =      1.0E-07
     mixing beta               =       0.4000
     number of iterations used =            8  plain     mixing
     Exchange-correlation= PBESOL
                           (   1   4  10   8   0   0   0)
     Non magnetic calculation with spin-orbit


     celldm(1)=  15.492504  celldm(2)=   1.005585  celldm(3)=   1.431410
     celldm(4)=   0.000000  celldm(5)=   0.000000  celldm(6)=   0.000000

     crystal axes: (cart. coord. in units of alat)
               a(1) = (   1.000000   0.000000   0.000000 )  
               a(2) = (   0.000000   1.005585   0.000000 )  
               a(3) = (   0.000000   0.000000   1.431410 )  

     reciprocal axes: (cart. coord. in units 2 pi/alat)
               b(1) = (  1.000000  0.000000  0.000000 )  
               b(2) = (  0.000000  0.994446  0.000000 )  
               b(3) = (  0.000000  0.000000  0.698612 )  


     PseudoPot. # 1 for Pb read from file:
     ../CsPbBr3/UPFs/Pb.pbesol-dn-rrkjus_psl.1.0.0.UPF
     MD5 check sum: de3ab99dd67dee7d7d2dd23c284b8fbc
     Pseudo is Ultrasoft + core correction, Zval = 14.0
     Generated using "atomic" code by A. Dal Corso v.6.3
     Using radial grid of 1281 points,  6 beta functions with: 
                l(1) =   0
                l(2) =   0
                l(3) =   1
                l(4) =   1
                l(5) =   2
                l(6) =   2
     Q(r) pseudized with 0 coefficients 


     PseudoPot. # 2 for Cs read from file:
     ../CsPbBr3/UPFs/Cs.pbesol-spn-rrkjus_psl.1.0.0.UPF
     MD5 check sum: a505fbb08e6a224ea4404a33e275d1b5
     Pseudo is Ultrasoft + core correction, Zval =  9.0
     Generated using "atomic" code by A. Dal Corso v.6.4.1
     Using radial grid of 1251 points,  9 beta functions with: 
                l(1) =   0
                l(2) =   0
                l(3) =   0
                l(4) =   1
                l(5) =   1
                l(6) =   2
                l(7) =   2
                l(8) =   3
                l(9) =   3
     Q(r) pseudized with 0 coefficients 


     PseudoPot. # 3 for Br read from file:
     ../CsPbBr3/UPFs/Br.pbesol-dn-rrkjus_psl.1.0.0.UPF
     MD5 check sum: 7a9ea7f62137b108585ade6af3d534e6
     Pseudo is Ultrasoft + core correction, Zval = 17.0
     Generated using "atomic" code by A. Dal Corso v.6.3
     Using radial grid of 1213 points,  6 beta functions with: 
                l(1) =   0
                l(2) =   0
                l(3) =   1
                l(4) =   1
                l(5) =   2
                l(6) =   2
     Q(r) pseudized with 0 coefficients 


     atomic species   valence    mass     pseudopotential
        Pb            14.00   207.20000     Pb( 1.00)
        Cs             9.00   132.90545     Cs( 1.00)
        Br            17.00    79.90400     Br( 1.00)

      8 Sym. Ops., with inversion, found ( 6 have fractional translation)



   Cartesian axes

     site n.     atom                  positions (alat units)
         1           Pb  tau(   1) = (   0.0000000   0.0000000   0.7157057  )
         2           Pb  tau(   2) = (   0.5000000   0.5027927   0.7157057  )
         3           Pb  tau(   3) = (   0.0000000   0.0000000   0.0000000  )
         4           Pb  tau(   4) = (   0.5000000   0.5027927   0.0000000  )
         5           Cs  tau(   5) = (   0.0070200   0.5339255   0.3578529  )
         6           Cs  tau(   6) = (   0.9929800   0.4716598   1.0735585  )
         7           Cs  tau(   7) = (   0.5070200   0.9744524   1.0735585  )
         8           Cs  tau(   8) = (   0.4929800   0.0311329   0.3578529  )
         9           Br  tau(   9) = (   0.2060718   0.2951109   0.6815112  )
        10           Br  tau(  10) = (   0.7939282   0.7104744   0.7499001  )
        11           Br  tau(  11) = (   0.7060718   0.2076817   0.7499001  )
        12           Br  tau(  12) = (   0.2939282   0.7979036   0.6815112  )
        13           Br  tau(  13) = (   0.7939282   0.7104744   1.3972170  )
        14           Br  tau(  14) = (   0.2060718   0.2951109   0.0341944  )
        15           Br  tau(  15) = (   0.2939282   0.7979036   0.0341944  )
        16           Br  tau(  16) = (   0.7060718   0.2076817   1.3972170  )
        17           Br  tau(  17) = (   0.0455400   0.0037609   1.0735585  )
        18           Br  tau(  18) = (   0.9544600   1.0018244   0.3578529  )
        19           Br  tau(  19) = (   0.5455400   0.4990317   0.3578529  )
        20           Br  tau(  20) = (   0.4544600   0.5065536   1.0735585  )

     number of k points=    18
                       cart. coord. in units 2pi/alat
        k(    1) = (   0.1000000   0.0994446   0.0873265), wk =   0.0800000
        k(    2) = (   0.1000000   0.0994446   0.2619794), wk =   0.0800000
        k(    3) = (   0.1000000   0.2983337   0.0873265), wk =   0.0800000
        k(    4) = (   0.1000000   0.2983337   0.2619794), wk =   0.0800000
        k(    5) = (   0.1000000  -0.4972229   0.0873265), wk =   0.0400000
        k(    6) = (   0.1000000  -0.4972229   0.2619794), wk =   0.0400000
        k(    7) = (   0.3000000   0.0994446   0.0873265), wk =   0.0800000
        k(    8) = (   0.3000000   0.0994446   0.2619794), wk =   0.0800000
        k(    9) = (   0.3000000   0.2983337   0.0873265), wk =   0.0800000
        k(   10) = (   0.3000000   0.2983337   0.2619794), wk =   0.0800000
        k(   11) = (   0.3000000  -0.4972229   0.0873265), wk =   0.0400000
        k(   12) = (   0.3000000  -0.4972229   0.2619794), wk =   0.0400000
        k(   13) = (  -0.5000000   0.0994446   0.0873265), wk =   0.0400000
        k(   14) = (  -0.5000000   0.0994446   0.2619794), wk =   0.0400000
        k(   15) = (  -0.5000000   0.2983337   0.0873265), wk =   0.0400000
        k(   16) = (  -0.5000000   0.2983337   0.2619794), wk =   0.0400000
        k(   17) = (  -0.5000000  -0.4972229   0.0873265), wk =   0.0200000
        k(   18) = (  -0.5000000  -0.4972229   0.2619794), wk =   0.0200000

     Dense  grid:   723165 G-vectors     FFT dimensions: ( 100, 100, 144)

     Smooth grid:   255545 G-vectors     FFT dimensions: (  72,  72, 100)

     Estimated max dynamical RAM per process >       3.33 GB

     Estimated total dynamical RAM >      13.32 GB

     Initial potential from superposition of free atoms

     starting charge  295.83785, renormalised to  296.00000
     Starting wfcs are  328 randomized atomic wfcs

     total cpu time spent up to now is      690.3 secs

     Self-consistent Calculation

     iteration #  1     ecut=    50.00 Ry     beta= 0.40
     Davidson diagonalization with overlap
     ethr =  1.00E-02,  avg # of iterations =  1.0

     Threshold (ethr) on eigenvalues was too large:
     Diagonalizing with lowered threshold

     Davidson diagonalization with overlap
     ethr =  1.97E-04,  avg # of iterations =  4.1

     total cpu time spent up to now is     5347.6 secs

     total energy              =   -4345.71071761 Ry
     estimated scf accuracy    <       0.46479946 Ry

     iteration #  2     ecut=    50.00 Ry     beta= 0.40
     Davidson diagonalization with overlap
     ethr =  1.57E-04,  avg # of iterations =  2.9

     total cpu time spent up to now is     7518.7 secs

     total energy              =   -4345.78181990 Ry
     estimated scf accuracy    <       0.03304211 Ry

     iteration #  3     ecut=    50.00 Ry     beta= 0.40
     Davidson diagonalization with overlap
     ethr =  1.12E-05,  avg # of iterations =  5.1

     total cpu time spent up to now is    10194.7 secs

     total energy              =   -4345.78999523 Ry
     estimated scf accuracy    <       0.00699191 Ry

     iteration #  4     ecut=    50.00 Ry     beta= 0.40
     Davidson diagonalization with overlap
     ethr =  2.36E-06,  avg # of iterations =  2.8

     total cpu time spent up to now is    12479.6 secs

     total energy              =   -4345.79126395 Ry
     estimated scf accuracy    <       0.00090895 Ry

     iteration #  5     ecut=    50.00 Ry     beta= 0.40
     Davidson diagonalization with overlap
     ethr =  3.07E-07,  avg # of iterations =  4.4

     total cpu time spent up to now is    14883.1 secs

     total energy              =   -4345.79141792 Ry
     estimated scf accuracy    <       0.00006284 Ry

     iteration #  6     ecut=    50.00 Ry     beta= 0.40
     Davidson diagonalization with overlap
     ethr =  2.12E-08,  avg # of iterations =  5.4

     total cpu time spent up to now is    18140.0 secs

     total energy              =   -4345.79145716 Ry
     estimated scf accuracy    <       0.00001352 Ry

     iteration #  7     ecut=    50.00 Ry     beta= 0.40
     Davidson diagonalization with overlap
     ethr =  4.57E-09,  avg # of iterations =  4.4

     total cpu time spent up to now is    20736.8 secs

     total energy              =   -4345.79145832 Ry
     estimated scf accuracy    <       0.00000359 Ry

     iteration #  8     ecut=    50.00 Ry     beta= 0.40
     Davidson diagonalization with overlap
     ethr =  1.21E-09,  avg # of iterations =  4.9

     total cpu time spent up to now is    23536.2 secs

     total energy              =   -4345.79146011 Ry
     estimated scf accuracy    <       0.00000071 Ry

     iteration #  9     ecut=    50.00 Ry     beta= 0.40
     Davidson diagonalization with overlap
     ethr =  2.38E-10,  avg # of iterations =  5.1

     total cpu time spent up to now is    26529.8 secs

     End of self-consistent calculation

          k = 0.1000 0.0994 0.0873 ( 31974 PWs)   bands (ev):

   -55.9895 -55.9895 -55.9894 -55.9894 -55.9890 -55.9890 -55.9889 -55.9889
   -55.9746 -55.9746 -55.9746 -55.9746 -55.9743 -55.9743 -55.9741 -55.9741
   -55.9741 -55.9741 -55.9741 -55.9741 -55.9739 -55.9739 -55.9737 -55.9737
   -55.9688 -55.9688 -55.9687 -55.9687 -55.9683 -55.9683 -55.9683 -55.9683
   -55.9668 -55.9668 -55.9668 -55.9668 -55.9664 -55.9664 -55.9663 -55.9663
   -55.9544 -55.9544 -55.9543 -55.9543 -55.9541 -55.9541 -55.9540 -55.9540
   -55.9539 -55.9539 -55.9538 -55.9538 -55.9538 -55.9538 -55.9537 -55.9537
   -55.9535 -55.9535 -55.9535 -55.9535 -55.9533 -55.9533 -55.9532 -55.9532
   -55.9531 -55.9531 -55.9530 -55.9530 -55.9529 -55.9529 -55.9528 -55.9528
   -55.9094 -55.9094 -55.9093 -55.9093 -55.9090 -55.9090 -55.9090 -55.9090
   -55.9089 -55.9089 -55.9089 -55.9089 -55.9086 -55.9086 -55.9085 -55.9085
   -55.8978 -55.8978 -55.8977 -55.8977 -55.8975 -55.8975 -55.8975 -55.8975
   -55.8974 -55.8974 -55.8973 -55.8973 -55.8973 -55.8973 -55.8972 -55.8972
   -55.8971 -55.8971 -55.8971 -55.8971 -55.8970 -55.8970 -55.8970 -55.8970
   -55.8969 -55.8969 -55.8968 -55.8968 -55.8967 -55.8967 -55.8966 -55.8966
   -16.7344 -16.7344 -16.7329 -16.7329 -16.7318 -16.7318 -16.7306 -16.7306
   -12.4352 -12.4352 -12.4295 -12.4295 -12.4283 -12.4283 -12.4093 -12.4093
   -12.3786 -12.3786 -12.3497 -12.3497 -12.3456 -12.3456 -12.3438 -12.3438
   -12.2931 -12.2931 -12.2923 -12.2923 -12.2919 -12.2919 -12.2911 -12.2911
   -12.2911 -12.2911 -12.2902 -12.2902 -12.2900 -12.2900 -12.2892 -12.2892
   -12.2890 -12.2890 -12.2884 -12.2884 -12.2874 -12.2874 -12.2869 -12.2869
   -10.3393 -10.3393 -10.1687 -10.1687 -10.0339 -10.0339 -10.0023 -10.0023
    -9.9869  -9.9869  -9.9819  -9.9819  -9.9770  -9.9770  -9.9663  -9.9663
    -9.8828  -9.8828  -9.7157  -9.7157  -9.7070  -9.7070  -9.6980  -9.6980
    -4.4606  -4.4606  -3.9488  -3.9488  -3.5826  -3.5826  -3.5810  -3.5810
    -3.5643  -3.5643  -3.5628  -3.5628  -3.5552  -3.5552  -3.5484  -3.5484
    -3.5370  -3.5370  -3.5323  -3.5323  -3.5275  -3.5275  -3.5264  -3.5264
    -3.5230  -3.5230  -3.5193  -3.5193  -3.4493  -3.4493  -2.8470  -2.8470
     0.1910   0.1910   0.2134   0.2134   0.2815   0.2815   0.3642   0.3642
     0.4068   0.4068   0.4294   0.4294   1.4028   1.4028   1.5530   1.5530
     1.5978   1.5978   1.6538   1.6538   1.6591   1.6591   1.6883   1.6883
     1.8569   1.8569   1.8922   1.8922   2.0273   2.0273   2.0513   2.0513
     2.0691   2.0691   2.1016   2.1016   2.1509   2.1509   2.2115   2.2115
     2.2302   2.2302   2.2525   2.2525   2.2734   2.2734   2.3002   2.3002
     2.3020   2.3020   2.3202   2.3202   2.3809   2.3809   2.4296   2.4296
     2.4397   2.4397   2.5590   2.5590   2.6204   2.6204   2.6507   2.6507
     2.7410   2.7410   2.9678   2.9678   3.4091   3.4091   3.9544   3.9544

          k = 0.1000 0.0994 0.2620 ( 31972 PWs)   bands (ev):

   -55.9895 -55.9895 -55.9894 -55.9894 -55.9890 -55.9890 -55.9890 -55.9890
   -55.9747 -55.9747 -55.9746 -55.9746 -55.9743 -55.9743 -55.9742 -55.9742
   -55.9741 -55.9741 -55.9741 -55.9741 -55.9738 -55.9738 -55.9737 -55.9737
   -55.9687 -55.9687 -55.9687 -55.9687 -55.9684 -55.9684 -55.9683 -55.9683
   -55.9668 -55.9668 -55.9667 -55.9667 -55.9664 -55.9664 -55.9663 -55.9663
   -55.9544 -55.9544 -55.9543 -55.9543 -55.9541 -55.9541 -55.9540 -55.9540
   -55.9539 -55.9539 -55.9538 -55.9538 -55.9537 -55.9537 -55.9536 -55.9536
   -55.9535 -55.9535 -55.9534 -55.9534 -55.9532 -55.9532 -55.9532 -55.9532
   -55.9531 -55.9531 -55.9530 -55.9530 -55.9529 -55.9529 -55.9528 -55.9528
   -55.9094 -55.9094 -55.9093 -55.9093 -55.9091 -55.9091 -55.9090 -55.9090
   -55.9089 -55.9089 -55.9089 -55.9089 -55.9087 -55.9087 -55.9085 -55.9085
   -55.8977 -55.8977 -55.8976 -55.8976 -55.8975 -55.8975 -55.8974 -55.8974
   -55.8974 -55.8974 -55.8973 -55.8973 -55.8973 -55.8973 -55.8972 -55.8972
   -55.8971 -55.8971 -55.8971 -55.8971 -55.8971 -55.8971 -55.8970 -55.8970
   -55.8970 -55.8970 -55.8968 -55.8968 -55.8968 -55.8968 -55.8966 -55.8966
   -16.7340 -16.7340 -16.7333 -16.7333 -16.7314 -16.7314 -16.7309 -16.7309
   -12.4299 -12.4299 -12.4293 -12.4293 -12.4178 -12.4178 -12.3951 -12.3951
   -12.3918 -12.3918 -12.3666 -12.3666 -12.3457 -12.3457 -12.3451 -12.3451
   -12.2930 -12.2930 -12.2924 -12.2924 -12.2918 -12.2918 -12.2912 -12.2912
   -12.2908 -12.2908 -12.2902 -12.2902 -12.2901 -12.2901 -12.2894 -12.2894
   -12.2890 -12.2890 -12.2884 -12.2884 -12.2874 -12.2874 -12.2869 -12.2869
   -10.3086 -10.3086 -10.2476 -10.2476 -10.0287 -10.0287 -10.0180 -10.0180
    -9.9855  -9.9855  -9.9832  -9.9832  -9.9348  -9.9348  -9.9027  -9.9027
    -9.8691  -9.8691  -9.7677  -9.7677  -9.7066  -9.7066  -9.7055  -9.7055
    -4.3284  -4.3284  -4.1184  -4.1184  -3.5757  -3.5757  -3.5736  -3.5736
    -3.5670  -3.5670  -3.5614  -3.5614  -3.5499  -3.5499  -3.5377  -3.5377
    -3.5373  -3.5373  -3.5358  -3.5358  -3.5330  -3.5330  -3.5306  -3.5306
    -3.5297  -3.5297  -3.5189  -3.5189  -3.3160  -3.3160  -3.0695  -3.0695
     0.2151   0.2151   0.2502   0.2502   0.3495   0.3495   0.3899   0.3899
     0.7385   0.7385   0.8565   0.8565   1.3110   1.3110   1.4592   1.4592
     1.4885   1.4885   1.5446   1.5446   1.6693   1.6693   1.6833   1.6833
     1.6881   1.6881   1.7653   1.7653   1.9673   1.9673   1.9799   1.9799
     2.0706   2.0706   2.1409   2.1409   2.1962   2.1962   2.2034   2.2034
     2.2367   2.2367   2.2539   2.2539   2.2939   2.2939   2.3153   2.3153
     2.3467   2.3467   2.3506   2.3506   2.3974   2.3974   2.4146   2.4146
     2.4369   2.4369   2.4597   2.4597   2.5545   2.5545   2.5606   2.5606
     2.7277   2.7277   2.7770   2.7770   3.4642   3.4642   3.6302   3.6302

          k = 0.1000 0.2983 0.0873 ( 31960 PWs)   bands (ev):

   -55.9895 -55.9895 -55.9894 -55.9894 -55.9889 -55.9889 -55.9889 -55.9889
   -55.9745 -55.9745 -55.9745 -55.9745 -55.9742 -55.9742 -55.9742 -55.9742
   -55.9741 -55.9741 -55.9740 -55.9740 -55.9738 -55.9738 -55.9737 -55.9737
   -55.9688 -55.9688 -55.9687 -55.9687 -55.9684 -55.9684 -55.9683 -55.9683
   -55.9668 -55.9668 -55.9668 -55.9668 -55.9664 -55.9664 -55.9664 -55.9664
   -55.9543 -55.9543 -55.9542 -55.9542 -55.9541 -55.9541 -55.9539 -55.9539
   -55.9539 -55.9539 -55.9538 -55.9538 -55.9537 -55.9537 -55.9536 -55.9536
   -55.9536 -55.9536 -55.9534 -55.9534 -55.9533 -55.9533 -55.9532 -55.9532
   -55.9531 -55.9531 -55.9530 -55.9530 -55.9529 -55.9529 -55.9528 -55.9528
   -55.9093 -55.9093 -55.9093 -55.9093 -55.9090 -55.9090 -55.9089 -55.9089
   -55.9089 -55.9089 -55.9088 -55.9088 -55.9086 -55.9086 -55.9085 -55.9085
   -55.8978 -55.8978 -55.8977 -55.8977 -55.8975 -55.8975 -55.8974 -55.8974
   -55.8974 -55.8974 -55.8973 -55.8973 -55.8973 -55.8973 -55.8972 -55.8972
   -55.8971 -55.8971 -55.8971 -55.8971 -55.8970 -55.8970 -55.8970 -55.8970
   -55.8970 -55.8970 -55.8969 -55.8969 -55.8967 -55.8967 -55.8966 -55.8966
   -16.7339 -16.7339 -16.7324 -16.7324 -16.7322 -16.7322 -16.7310 -16.7310
   -12.4315 -12.4315 -12.4154 -12.4154 -12.4146 -12.4146 -12.4121 -12.4121
   -12.3716 -12.3716 -12.3665 -12.3665 -12.3619 -12.3619 -12.3497 -12.3497
   -12.2928 -12.2928 -12.2921 -12.2921 -12.2921 -12.2921 -12.2913 -12.2913
   -12.2909 -12.2909 -12.2904 -12.2904 -12.2898 -12.2898 -12.2893 -12.2893
   -12.2887 -12.2887 -12.2881 -12.2881 -12.2878 -12.2878 -12.2872 -12.2872
   -10.2993 -10.2993 -10.1389 -10.1389 -10.1260 -10.1260 -10.0341 -10.0341
    -9.9776  -9.9776  -9.9761  -9.9761  -9.9442  -9.9442  -9.9243  -9.9243
    -9.8069  -9.8069  -9.7728  -9.7728  -9.7591  -9.7591  -9.7119  -9.7119
    -4.2992  -4.2992  -3.7874  -3.7874  -3.7086  -3.7086  -3.5775  -3.5775
    -3.5648  -3.5648  -3.5571  -3.5571  -3.5542  -3.5542  -3.5463  -3.5463
    -3.5378  -3.5378  -3.5335  -3.5335  -3.5295  -3.5295  -3.5258  -3.5258
    -3.5199  -3.5199  -3.5158  -3.5158  -3.5146  -3.5146  -3.1092  -3.1092
     0.2418   0.2418   0.3549   0.3549   0.3631   0.3631   0.4499   0.4499
     0.8035   0.8035   0.8348   0.8348   1.2638   1.2638   1.4132   1.4132
     1.4587   1.4587   1.5131   1.5131   1.5393   1.5393   1.6836   1.6836
     1.7175   1.7175   1.8436   1.8436   1.9115   1.9115   1.9380   1.9380
     2.0743   2.0743   2.1323   2.1323   2.1680   2.1680   2.1844   2.1844
     2.2040   2.2040   2.2349   2.2349   2.2691   2.2691   2.2804   2.2804
     2.2999   2.2999   2.3417   2.3417   2.3924   2.3924   2.4171   2.4171
     2.4302   2.4302   2.4907   2.4907   2.5562   2.5562   2.5906   2.5906
     2.7330   2.7330   3.0192   3.0192   3.0305   3.0305   3.5618   3.5618

          k = 0.1000 0.2983 0.2620 ( 31969 PWs)   bands (ev):

   -55.9894 -55.9894 -55.9894 -55.9894 -55.9890 -55.9890 -55.9890 -55.9890
   -55.9746 -55.9746 -55.9746 -55.9746 -55.9742 -55.9742 -55.9742 -55.9742
   -55.9741 -55.9741 -55.9741 -55.9741 -55.9739 -55.9739 -55.9738 -55.9738
   -55.9687 -55.9687 -55.9687 -55.9687 -55.9683 -55.9683 -55.9683 -55.9683
   -55.9668 -55.9668 -55.9667 -55.9667 -55.9664 -55.9664 -55.9664 -55.9664
   -55.9543 -55.9543 -55.9542 -55.9542 -55.9540 -55.9540 -55.9540 -55.9540
   -55.9539 -55.9539 -55.9538 -55.9538 -55.9538 -55.9538 -55.9536 -55.9536
   -55.9535 -55.9535 -55.9535 -55.9535 -55.9533 -55.9533 -55.9531 -55.9531
   -55.9531 -55.9531 -55.9530 -55.9530 -55.9529 -55.9529 -55.9528 -55.9528
   -55.9093 -55.9093 -55.9093 -55.9093 -55.9090 -55.9090 -55.9089 -55.9089
   -55.9089 -55.9089 -55.9089 -55.9089 -55.9086 -55.9086 -55.9085 -55.9085
   -55.8978 -55.8978 -55.8976 -55.8976 -55.8975 -55.8975 -55.8974 -55.8974
   -55.8974 -55.8974 -55.8973 -55.8973 -55.8973 -55.8973 -55.8972 -55.8972
   -55.8971 -55.8971 -55.8971 -55.8971 -55.8970 -55.8970 -55.8970 -55.8970
   -55.8970 -55.8970 -55.8968 -55.8968 -55.8967 -55.8967 -55.8966 -55.8966
   -16.7335 -16.7335 -16.7329 -16.7329 -16.7319 -16.7319 -16.7314 -16.7314
   -12.4201 -12.4201 -12.4159 -12.4159 -12.4073 -12.4073 -12.3978 -12.3978
   -12.3879 -12.3879 -12.3753 -12.3753 -12.3614 -12.3614 -12.3589 -12.3589
   -12.2927 -12.2927 -12.2922 -12.2922 -12.2920 -12.2920 -12.2914 -12.2914
   -12.2907 -12.2907 -12.2902 -12.2902 -12.2900 -12.2900 -12.2896 -12.2896
   -12.2887 -12.2887 -12.2882 -12.2882 -12.2877 -12.2877 -12.2872 -12.2872
   -10.2709 -10.2709 -10.2142 -10.2142 -10.1110 -10.1110 -10.0802 -10.0802
    -9.9470  -9.9470  -9.9441  -9.9441  -9.8906  -9.8906  -9.8761  -9.8761
    -9.8386  -9.8386  -9.7937  -9.7937  -9.7573  -9.7573  -9.7455  -9.7455
    -4.1672  -4.1672  -3.9565  -3.9565  -3.5987  -3.5987  -3.5699  -3.5699
    -3.5628  -3.5628  -3.5577  -3.5577  -3.5509  -3.5509  -3.5414  -3.5414
    -3.5374  -3.5374  -3.5345  -3.5345  -3.5344  -3.5344  -3.5288  -3.5288
    -3.5256  -3.5256  -3.5223  -3.5223  -3.4923  -3.4923  -3.3082  -3.3082
     0.3721   0.3721   0.4165   0.4165   0.6109   0.6109   0.7726   0.7726
     0.7972   0.7972   0.9295   0.9295   1.2924   1.2924   1.3142   1.3142
     1.3463   1.3463   1.4611   1.4611   1.4871   1.4871   1.5204   1.5204
     1.7538   1.7538   1.8019   1.8019   1.8549   1.8549   1.9270   1.9270
     1.9601   1.9601   2.0460   2.0460   2.1168   2.1168   2.1656   2.1656
     2.1891   2.1891   2.2157   2.2157   2.2795   2.2795   2.3035   2.3035
     2.3799   2.3799   2.3879   2.3879   2.4256   2.4256   2.4376   2.4376
     2.4597   2.4597   2.4659   2.4659   2.5259   2.5259   2.5510   2.5510
     2.7120   2.7120   2.7716   2.7716   3.0582   3.0582   3.2189   3.2189

          k = 0.1000-0.4972 0.0873 ( 31944 PWs)   bands (ev):

   -55.9893 -55.9893 -55.9893 -55.9893 -55.9889 -55.9889 -55.9888 -55.9888
   -55.9746 -55.9746 -55.9744 -55.9744 -55.9743 -55.9743 -55.9741 -55.9741
   -55.9741 -55.9741 -55.9740 -55.9740 -55.9739 -55.9739 -55.9738 -55.9738
   -55.9688 -55.9688 -55.9688 -55.9688 -55.9684 -55.9684 -55.9684 -55.9684
   -55.9668 -55.9668 -55.9668 -55.9668 -55.9664 -55.9664 -55.9663 -55.9663
   -55.9543 -55.9543 -55.9542 -55.9542 -55.9540 -55.9540 -55.9539 -55.9539
   -55.9538 -55.9538 -55.9537 -55.9537 -55.9537 -55.9537 -55.9535 -55.9535
   -55.9535 -55.9535 -55.9534 -55.9534 -55.9532 -55.9532 -55.9531 -55.9531
   -55.9531 -55.9531 -55.9529 -55.9529 -55.9529 -55.9529 -55.9528 -55.9528
   -55.9092 -55.9092 -55.9092 -55.9092 -55.9090 -55.9090 -55.9090 -55.9090
   -55.9088 -55.9088 -55.9088 -55.9088 -55.9086 -55.9086 -55.9085 -55.9085
   -55.8978 -55.8978 -55.8977 -55.8977 -55.8975 -55.8975 -55.8974 -55.8974
   -55.8973 -55.8973 -55.8973 -55.8973 -55.8973 -55.8973 -55.8972 -55.8972
   -55.8971 -55.8971 -55.8970 -55.8970 -55.8970 -55.8970 -55.8969 -55.8969
   -55.8969 -55.8969 -55.8968 -55.8968 -55.8966 -55.8966 -55.8966 -55.8966
   -16.7331 -16.7331 -16.7330 -16.7330 -16.7317 -16.7317 -16.7317 -16.7317
   -12.4232 -12.4232 -12.4232 -12.4232 -12.3916 -12.3916 -12.3916 -12.3916
   -12.3874 -12.3874 -12.3874 -12.3874 -12.3604 -12.3604 -12.3604 -12.3604
   -12.2925 -12.2925 -12.2925 -12.2925 -12.2917 -12.2917 -12.2917 -12.2917
   -12.2906 -12.2906 -12.2906 -12.2906 -12.2896 -12.2896 -12.2896 -12.2896
   -12.2883 -12.2883 -12.2883 -12.2883 -12.2877 -12.2877 -12.2876 -12.2876
   -10.2244 -10.2244 -10.2244 -10.2244 -10.0881 -10.0881 -10.0881 -10.0881
    -9.9764  -9.9764  -9.9764  -9.9764  -9.8595  -9.8595  -9.8595  -9.8595
    -9.8427  -9.8427  -9.8427  -9.8427  -9.7481  -9.7481  -9.7481  -9.7481
    -4.0190  -4.0190  -4.0190  -4.0190  -3.5872  -3.5872  -3.5871  -3.5871
    -3.5506  -3.5506  -3.5506  -3.5506  -3.5424  -3.5424  -3.5424  -3.5424
    -3.5377  -3.5377  -3.5376  -3.5376  -3.5259  -3.5259  -3.5259  -3.5259
    -3.5209  -3.5209  -3.5209  -3.5209  -3.4388  -3.4388  -3.4388  -3.4388
     0.2953   0.2953   0.2953   0.2953   0.7500   0.7500   0.7500   0.7500
     0.8663   0.8663   0.8663   0.8663   1.2793   1.2793   1.2794   1.2794
     1.3587   1.3587   1.3588   1.3588   1.5068   1.5068   1.5069   1.5069
     1.7977   1.7977   1.7977   1.7977   1.9554   1.9554   1.9556   1.9556
     2.0060   2.0060   2.0062   2.0062   2.1445   2.1445   2.1445   2.1445
     2.2029   2.2029   2.2029   2.2029   2.2865   2.2865   2.2866   2.2866
     2.3588   2.3588   2.3589   2.3589   2.4044   2.4044   2.4045   2.4045
     2.4509   2.4509   2.4509   2.4509   2.5183   2.5183   2.5183   2.5183
     2.7336   2.7336   2.7337   2.7337   3.2030   3.2030   3.2031   3.2031

          k = 0.1000-0.4972 0.2620 ( 31936 PWs)   bands (ev):

   -55.9894 -55.9894 -55.9894 -55.9894 -55.9890 -55.9890 -55.9890 -55.9890
   -55.9746 -55.9746 -55.9744 -55.9744 -55.9742 -55.9742 -55.9741 -55.9741
   -55.9741 -55.9741 -55.9740 -55.9740 -55.9739 -55.9739 -55.9738 -55.9738
   -55.9687 -55.9687 -55.9687 -55.9687 -55.9683 -55.9683 -55.9683 -55.9683
   -55.9668 -55.9668 -55.9667 -55.9667 -55.9664 -55.9664 -55.9664 -55.9664
   -55.9542 -55.9542 -55.9541 -55.9541 -55.9539 -55.9539 -55.9538 -55.9538
   -55.9537 -55.9537 -55.9537 -55.9537 -55.9536 -55.9536 -55.9535 -55.9535
   -55.9535 -55.9535 -55.9533 -55.9533 -55.9532 -55.9532 -55.9531 -55.9531
   -55.9530 -55.9530 -55.9529 -55.9529 -55.9528 -55.9528 -55.9527 -55.9527
   -55.9091 -55.9091 -55.9091 -55.9091 -55.9089 -55.9089 -55.9089 -55.9089
   -55.9088 -55.9088 -55.9087 -55.9087 -55.9085 -55.9085 -55.9085 -55.9085
   -55.8977 -55.8977 -55.8976 -55.8976 -55.8975 -55.8975 -55.8974 -55.8974
   -55.8974 -55.8974 -55.8973 -55.8973 -55.8972 -55.8972 -55.8972 -55.8972
   -55.8971 -55.8971 -55.8971 -55.8971 -55.8970 -55.8970 -55.8970 -55.8970
   -55.8969 -55.8969 -55.8968 -55.8968 -55.8967 -55.8967 -55.8966 -55.8966
   -16.7327 -16.7327 -16.7327 -16.7327 -16.7321 -16.7321 -16.7321 -16.7321
   -12.4081 -12.4081 -12.4081 -12.4081 -12.3942 -12.3942 -12.3942 -12.3942
   -12.3857 -12.3857 -12.3857 -12.3857 -12.3754 -12.3754 -12.3754 -12.3754
   -12.2924 -12.2924 -12.2924 -12.2924 -12.2918 -12.2918 -12.2918 -12.2918
   -12.2904 -12.2904 -12.2904 -12.2904 -12.2898 -12.2898 -12.2898 -12.2898
   -12.2882 -12.2882 -12.2882 -12.2882 -12.2877 -12.2877 -12.2877 -12.2877
   -10.2011 -10.2011 -10.2011 -10.2011 -10.1540 -10.1540 -10.1540 -10.1540
    -9.8971  -9.8971  -9.8971  -9.8971  -9.8637  -9.8637  -9.8637  -9.8637
    -9.8335  -9.8335  -9.8335  -9.8335  -9.7887  -9.7887  -9.7887  -9.7887
    -3.8863  -3.8863  -3.8863  -3.8863  -3.6802  -3.6802  -3.6802  -3.6802
    -3.5550  -3.5550  -3.5550  -3.5550  -3.5516  -3.5516  -3.5516  -3.5516
    -3.5407  -3.5407  -3.5407  -3.5407  -3.5316  -3.5316  -3.5316  -3.5316
    -3.5185  -3.5185  -3.5185  -3.5185  -3.5097  -3.5097  -3.5097  -3.5097
     0.6702   0.6702   0.6702   0.6702   0.8101   0.8101   0.8104   0.8104
     0.8334   0.8334   0.8337   0.8337   1.2047   1.2047   1.2048   1.2048
     1.3216   1.3216   1.3216   1.3216   1.4236   1.4236   1.4236   1.4236
     1.8373   1.8373   1.8373   1.8373   1.9301   1.9301   1.9302   1.9302
     1.9682   1.9682   1.9682   1.9682   2.0221   2.0221   2.0222   2.0222
     2.2019   2.2019   2.2020   2.2020   2.2440   2.2440   2.2441   2.2441
     2.4189   2.4189   2.4190   2.4190   2.4388   2.4388   2.4388   2.4388
     2.4803   2.4803   2.4804   2.4804   2.5123   2.5123   2.5123   2.5123
     2.7415   2.7415   2.7416   2.7416   2.8614   2.8614   2.8614   2.8614

          k = 0.3000 0.0994 0.0873 ( 31973 PWs)   bands (ev):

   -55.9896 -55.9896 -55.9893 -55.9893 -55.9890 -55.9890 -55.9889 -55.9889
   -55.9746 -55.9746 -55.9745 -55.9745 -55.9742 -55.9742 -55.9742 -55.9742
   -55.9742 -55.9742 -55.9740 -55.9740 -55.9739 -55.9739 -55.9738 -55.9738
   -55.9688 -55.9688 -55.9687 -55.9687 -55.9684 -55.9684 -55.9683 -55.9683
   -55.9669 -55.9669 -55.9668 -55.9668 -55.9664 -55.9664 -55.9663 -55.9663
   -55.9544 -55.9544 -55.9543 -55.9543 -55.9541 -55.9541 -55.9540 -55.9540
   -55.9539 -55.9539 -55.9538 -55.9538 -55.9537 -55.9537 -55.9536 -55.9536
   -55.9536 -55.9536 -55.9534 -55.9534 -55.9533 -55.9533 -55.9532 -55.9532
   -55.9531 -55.9531 -55.9530 -55.9530 -55.9530 -55.9530 -55.9528 -55.9528
   -55.9094 -55.9094 -55.9093 -55.9093 -55.9091 -55.9091 -55.9090 -55.9090
   -55.9089 -55.9089 -55.9088 -55.9088 -55.9088 -55.9088 -55.9084 -55.9084
   -55.8978 -55.8978 -55.8977 -55.8977 -55.8975 -55.8975 -55.8974 -55.8974
   -55.8974 -55.8974 -55.8974 -55.8974 -55.8973 -55.8973 -55.8972 -55.8972
   -55.8971 -55.8971 -55.8971 -55.8971 -55.8970 -55.8970 -55.8970 -55.8970
   -55.8970 -55.8970 -55.8969 -55.8969 -55.8967 -55.8967 -55.8966 -55.8966
   -16.7339 -16.7339 -16.7325 -16.7325 -16.7321 -16.7321 -16.7310 -16.7310
   -12.4315 -12.4315 -12.4154 -12.4154 -12.4146 -12.4146 -12.4121 -12.4121
   -12.3716 -12.3716 -12.3665 -12.3665 -12.3619 -12.3619 -12.3497 -12.3497
   -12.2928 -12.2928 -12.2921 -12.2921 -12.2921 -12.2921 -12.2913 -12.2913
   -12.2909 -12.2909 -12.2904 -12.2904 -12.2898 -12.2898 -12.2893 -12.2893
   -12.2887 -12.2887 -12.2881 -12.2881 -12.2878 -12.2878 -12.2872 -12.2872
   -10.2998 -10.2998 -10.1394 -10.1394 -10.1275 -10.1275 -10.0362 -10.0362
    -9.9782  -9.9782  -9.9767  -9.9767  -9.9423  -9.9423  -9.9215  -9.9215
    -9.8072  -9.8072  -9.7723  -9.7723  -9.7583  -9.7583  -9.7119  -9.7119
    -4.2992  -4.2992  -3.7868  -3.7868  -3.7025  -3.7025  -3.5726  -3.5726
    -3.5644  -3.5644  -3.5556  -3.5556  -3.5543  -3.5543  -3.5494  -3.5494
    -3.5473  -3.5473  -3.5341  -3.5341  -3.5335  -3.5335  -3.5259  -3.5259
    -3.5203  -3.5203  -3.5139  -3.5139  -3.5091  -3.5091  -3.1115  -3.1115
     0.2403   0.2403   0.3621   0.3621   0.3640   0.3640   0.4578   0.4578
     0.7910   0.7910   0.8347   0.8347   1.2455   1.2455   1.4094   1.4094
     1.4545   1.4545   1.4994   1.4994   1.5376   1.5376   1.6867   1.6867
     1.7208   1.7208   1.8486   1.8486   1.9214   1.9214   1.9420   1.9420
     2.0664   2.0664   2.1281   2.1281   2.1413   2.1413   2.1822   2.1822
     2.2225   2.2225   2.2419   2.2419   2.2699   2.2699   2.2942   2.2942
     2.3178   2.3178   2.3382   2.3382   2.3901   2.3901   2.4242   2.4242
     2.4516   2.4516   2.4992   2.4992   2.5681   2.5681   2.6166   2.6166
     2.6909   2.6909   3.0069   3.0069   3.0242   3.0242   3.5452   3.5452

          k = 0.3000 0.0994 0.2620 ( 31970 PWs)   bands (ev):

   -55.9894 -55.9894 -55.9894 -55.9894 -55.9891 -55.9891 -55.9890 -55.9890
   -55.9746 -55.9746 -55.9745 -55.9745 -55.9742 -55.9742 -55.9742 -55.9742
   -55.9741 -55.9741 -55.9740 -55.9740 -55.9739 -55.9739 -55.9737 -55.9737
   -55.9688 -55.9688 -55.9687 -55.9687 -55.9684 -55.9684 -55.9683 -55.9683
   -55.9668 -55.9668 -55.9667 -55.9667 -55.9664 -55.9664 -55.9663 -55.9663
   -55.9544 -55.9544 -55.9542 -55.9542 -55.9541 -55.9541 -55.9540 -55.9540
   -55.9539 -55.9539 -55.9538 -55.9538 -55.9538 -55.9538 -55.9536 -55.9536
   -55.9535 -55.9535 -55.9534 -55.9534 -55.9533 -55.9533 -55.9532 -55.9532
   -55.9531 -55.9531 -55.9530 -55.9530 -55.9529 -55.9529 -55.9528 -55.9528
   -55.9094 -55.9094 -55.9093 -55.9093 -55.9091 -55.9091 -55.9090 -55.9090
   -55.9090 -55.9090 -55.9088 -55.9088 -55.9087 -55.9087 -55.9084 -55.9084
   -55.8977 -55.8977 -55.8977 -55.8977 -55.8975 -55.8975 -55.8974 -55.8974
   -55.8974 -55.8974 -55.8973 -55.8973 -55.8973 -55.8973 -55.8972 -55.8972
   -55.8971 -55.8971 -55.8971 -55.8971 -55.8970 -55.8970 -55.8970 -55.8970
   -55.8969 -55.8969 -55.8969 -55.8969 -55.8967 -55.8967 -55.8966 -55.8966
   -16.7335 -16.7335 -16.7329 -16.7329 -16.7319 -16.7319 -16.7314 -16.7314
   -12.4201 -12.4201 -12.4159 -12.4159 -12.4073 -12.4073 -12.3978 -12.3978
   -12.3879 -12.3879 -12.3753 -12.3753 -12.3614 -12.3614 -12.3589 -12.3589
   -12.2927 -12.2927 -12.2922 -12.2922 -12.2920 -12.2920 -12.2914 -12.2914
   -12.2907 -12.2907 -12.2902 -12.2902 -12.2900 -12.2900 -12.2895 -12.2895
   -12.2887 -12.2887 -12.2882 -12.2882 -12.2877 -12.2877 -12.2872 -12.2872
   -10.2714 -10.2714 -10.2147 -10.2147 -10.1126 -10.1126 -10.0820 -10.0820
    -9.9457  -9.9457  -9.9421  -9.9421  -9.8904  -9.8904  -9.8763  -9.8763
    -9.8388  -9.8388  -9.7935  -9.7935  -9.7566  -9.7566  -9.7451  -9.7451
    -4.1673  -4.1673  -3.9565  -3.9565  -3.5905  -3.5905  -3.5675  -3.5675
    -3.5610  -3.5610  -3.5591  -3.5591  -3.5495  -3.5495  -3.5451  -3.5451
    -3.5399  -3.5399  -3.5379  -3.5379  -3.5319  -3.5319  -3.5268  -3.5268
    -3.5219  -3.5219  -3.5178  -3.5178  -3.5025  -3.5025  -3.3122  -3.3122
     0.3769   0.3769   0.4224   0.4224   0.6106   0.6106   0.7700   0.7700
     0.7956   0.7956   0.9190   0.9190   1.2769   1.2769   1.3047   1.3047
     1.3365   1.3365   1.4350   1.4350   1.4985   1.4985   1.5241   1.5241
     1.7567   1.7567   1.8101   1.8101   1.8559   1.8559   1.9259   1.9259
     1.9649   1.9649   2.0392   2.0392   2.1291   2.1291   2.1622   2.1622
     2.2096   2.2096   2.2581   2.2581   2.2846   2.2846   2.3216   2.3216
     2.3805   2.3805   2.3987   2.3987   2.4148   2.4148   2.4398   2.4398
     2.4574   2.4574   2.4726   2.4726   2.5305   2.5305   2.5652   2.5652
     2.6832   2.6832   2.7571   2.7571   3.0387   3.0387   3.1933   3.1933

          k = 0.3000 0.2983 0.0873 ( 31947 PWs)   bands (ev):

   -55.9894 -55.9894 -55.9893 -55.9893 -55.9889 -55.9889 -55.9889 -55.9889
   -55.9746 -55.9746 -55.9746 -55.9746 -55.9743 -55.9743 -55.9742 -55.9742
   -55.9741 -55.9741 -55.9740 -55.9740 -55.9738 -55.9738 -55.9738 -55.9738
   -55.9687 -55.9687 -55.9687 -55.9687 -55.9683 -55.9683 -55.9683 -55.9683
   -55.9668 -55.9668 -55.9667 -55.9667 -55.9664 -55.9664 -55.9663 -55.9663
   -55.9543 -55.9543 -55.9542 -55.9542 -55.9540 -55.9540 -55.9539 -55.9539
   -55.9539 -55.9539 -55.9538 -55.9538 -55.9537 -55.9537 -55.9536 -55.9536
   -55.9535 -55.9535 -55.9534 -55.9534 -55.9533 -55.9533 -55.9531 -55.9531
   -55.9530 -55.9530 -55.9530 -55.9530 -55.9529 -55.9529 -55.9527 -55.9527
   -55.9093 -55.9093 -55.9092 -55.9092 -55.9090 -55.9090 -55.9089 -55.9089
   -55.9089 -55.9089 -55.9088 -55.9088 -55.9087 -55.9087 -55.9085 -55.9085
   -55.8978 -55.8978 -55.8977 -55.8977 -55.8975 -55.8975 -55.8974 -55.8974
   -55.8974 -55.8974 -55.8973 -55.8973 -55.8972 -55.8972 -55.8971 -55.8971
   -55.8971 -55.8971 -55.8970 -55.8970 -55.8970 -55.8970 -55.8969 -55.8969
   -55.8969 -55.8969 -55.8968 -55.8968 -55.8967 -55.8967 -55.8965 -55.8965
   -16.7335 -16.7335 -16.7326 -16.7326 -16.7321 -16.7321 -16.7313 -16.7313
   -12.4349 -12.4349 -12.4221 -12.4221 -12.4124 -12.4124 -12.3962 -12.3962
   -12.3851 -12.3851 -12.3676 -12.3676 -12.3612 -12.3612 -12.3448 -12.3448
   -12.2927 -12.2927 -12.2923 -12.2923 -12.2920 -12.2920 -12.2915 -12.2915
   -12.2908 -12.2908 -12.2905 -12.2905 -12.2897 -12.2897 -12.2894 -12.2894
   -12.2885 -12.2885 -12.2879 -12.2879 -12.2879 -12.2879 -12.2873 -12.2873
   -10.2592 -10.2592 -10.1250 -10.1250 -10.1076 -10.1076 -10.0167 -10.0167
    -9.9903  -9.9903  -9.9888  -9.9888  -9.9773  -9.9773  -9.9221  -9.9221
    -9.8507  -9.8507  -9.8050  -9.8050  -9.7486  -9.7486  -9.6949  -9.6949
    -4.1812  -4.1812  -3.8119  -3.8119  -3.6729  -3.6729  -3.5642  -3.5642
    -3.5568  -3.5568  -3.5498  -3.5498  -3.5466  -3.5466  -3.5419  -3.5419
    -3.5391  -3.5391  -3.5317  -3.5317  -3.5299  -3.5299  -3.5272  -3.5272
    -3.5192  -3.5192  -3.5173  -3.5173  -3.4992  -3.4992  -3.2253  -3.2253
     0.2437   0.2437   0.2592   0.2592   0.3213   0.3213   0.3709   0.3709
     0.8204   0.8204   0.9532   0.9532   1.2052   1.2052   1.2886   1.2886
     1.4468   1.4468   1.4609   1.4609   1.5285   1.5285   1.7604   1.7604
     1.7926   1.7926   1.8909   1.8909   1.9676   1.9676   2.0402   2.0402
     2.0831   2.0831   2.1096   2.1096   2.1503   2.1503   2.1717   2.1717
     2.2134   2.2134   2.2329   2.2329   2.2510   2.2510   2.2693   2.2693
     2.3004   2.3004   2.3078   2.3078   2.3513   2.3513   2.3600   2.3600
     2.3855   2.3855   2.4627   2.4627   2.5413   2.5413   2.5654   2.5654
     2.7323   2.7323   3.0100   3.0100   3.1333   3.1333   3.5693   3.5693

          k = 0.3000 0.2983 0.2620 ( 31957 PWs)   bands (ev):

   -55.9895 -55.9895 -55.9894 -55.9894 -55.9891 -55.9891 -55.9890 -55.9890
   -55.9746 -55.9746 -55.9745 -55.9745 -55.9743 -55.9743 -55.9742 -55.9742
   -55.9741 -55.9741 -55.9740 -55.9740 -55.9739 -55.9739 -55.9738 -55.9738
   -55.9688 -55.9688 -55.9687 -55.9687 -55.9683 -55.9683 -55.9683 -55.9683
   -55.9668 -55.9668 -55.9667 -55.9667 -55.9664 -55.9664 -55.9663 -55.9663
   -55.9543 -55.9543 -55.9542 -55.9542 -55.9540 -55.9540 -55.9539 -55.9539
   -55.9539 -55.9539 -55.9538 -55.9538 -55.9537 -55.9537 -55.9536 -55.9536
   -55.9535 -55.9535 -55.9535 -55.9535 -55.9533 -55.9533 -55.9531 -55.9531
   -55.9530 -55.9530 -55.9530 -55.9530 -55.9529 -55.9529 -55.9527 -55.9527
   -55.9093 -55.9093 -55.9092 -55.9092 -55.9091 -55.9091 -55.9089 -55.9089
   -55.9089 -55.9089 -55.9088 -55.9088 -55.9087 -55.9087 -55.9085 -55.9085
   -55.8977 -55.8977 -55.8976 -55.8976 -55.8975 -55.8975 -55.8974 -55.8974
   -55.8974 -55.8974 -55.8973 -55.8973 -55.8973 -55.8973 -55.8972 -55.8972
   -55.8971 -55.8971 -55.8971 -55.8971 -55.8971 -55.8971 -55.8970 -55.8970
   -55.8969 -55.8969 -55.8968 -55.8968 -55.8968 -55.8968 -55.8966 -55.8966
   -16.7331 -16.7331 -16.7326 -16.7326 -16.7321 -16.7321 -16.7316 -16.7316
   -12.4242 -12.4242 -12.4153 -12.4153 -12.4078 -12.4078 -12.3918 -12.3918
   -12.3904 -12.3904 -12.3754 -12.3754 -12.3647 -12.3647 -12.3560 -12.3560
   -12.2926 -12.2926 -12.2922 -12.2922 -12.2920 -12.2920 -12.2916 -12.2916
   -12.2906 -12.2906 -12.2903 -12.2903 -12.2899 -12.2899 -12.2896 -12.2896
   -12.2885 -12.2885 -12.2880 -12.2880 -12.2879 -12.2879 -12.2874 -12.2874
   -10.2327 -10.2327 -10.1797 -10.1797 -10.1063 -10.1063 -10.0687 -10.0687
    -9.9896  -9.9896  -9.9889  -9.9889  -9.8999  -9.8999  -9.8609  -9.8609
    -9.8500  -9.8500  -9.7859  -9.7859  -9.7853  -9.7853  -9.7361  -9.7361
    -4.0489  -4.0489  -3.8375  -3.8375  -3.6821  -3.6821  -3.5637  -3.5637
    -3.5578  -3.5578  -3.5534  -3.5534  -3.5465  -3.5465  -3.5411  -3.5411
    -3.5365  -3.5365  -3.5343  -3.5343  -3.5322  -3.5322  -3.5273  -3.5273
    -3.5217  -3.5217  -3.5174  -3.5174  -3.5107  -3.5107  -3.4095  -3.4095
     0.2757   0.2757   0.3232   0.3232   0.6873   0.6873   0.7118   0.7118
     0.8926   0.8926   0.9189   0.9189   1.1598   1.1598   1.2528   1.2528
     1.3773   1.3773   1.4239   1.4239   1.4943   1.4943   1.5250   1.5250
     1.7779   1.7779   1.8347   1.8347   1.8634   1.8634   1.9602   1.9602
     1.9827   1.9827   2.0596   2.0596   2.1372   2.1372   2.1717   2.1717
     2.1977   2.1977   2.2316   2.2316   2.2777   2.2777   2.3148   2.3148
     2.3183   2.3183   2.3459   2.3459   2.3955   2.3955   2.4145   2.4145
     2.4271   2.4271   2.5006   2.5006   2.5336   2.5336   2.5466   2.5466
     2.7014   2.7014   2.8077   2.8077   3.0596   3.0596   3.2369   3.2369

          k = 0.3000-0.4972 0.0873 ( 31898 PWs)   bands (ev):

   -55.9894 -55.9894 -55.9893 -55.9893 -55.9888 -55.9888 -55.9888 -55.9888
   -55.9746 -55.9746 -55.9745 -55.9745 -55.9742 -55.9742 -55.9741 -55.9741
   -55.9741 -55.9741 -55.9740 -55.9740 -55.9737 -55.9737 -55.9737 -55.9737
   -55.9687 -55.9687 -55.9686 -55.9686 -55.9683 -55.9683 -55.9683 -55.9683
   -55.9667 -55.9667 -55.9667 -55.9667 -55.9663 -55.9663 -55.9663 -55.9663
   -55.9542 -55.9542 -55.9541 -55.9541 -55.9539 -55.9539 -55.9539 -55.9539
   -55.9538 -55.9538 -55.9536 -55.9536 -55.9535 -55.9535 -55.9535 -55.9535
   -55.9534 -55.9534 -55.9534 -55.9534 -55.9532 -55.9532 -55.9530 -55.9530
   -55.9530 -55.9530 -55.9529 -55.9529 -55.9528 -55.9528 -55.9526 -55.9526
   -55.9091 -55.9091 -55.9091 -55.9091 -55.9089 -55.9089 -55.9089 -55.9089
   -55.9088 -55.9088 -55.9087 -55.9087 -55.9085 -55.9085 -55.9085 -55.9085
   -55.8977 -55.8977 -55.8976 -55.8976 -55.8974 -55.8974 -55.8974 -55.8974
   -55.8973 -55.8973 -55.8972 -55.8972 -55.8972 -55.8972 -55.8971 -55.8971
   -55.8970 -55.8970 -55.8970 -55.8970 -55.8969 -55.8969 -55.8969 -55.8969
   -55.8969 -55.8969 -55.8968 -55.8968 -55.8966 -55.8966 -55.8965 -55.8965
   -16.7330 -16.7330 -16.7330 -16.7330 -16.7317 -16.7317 -16.7317 -16.7317
   -12.4310 -12.4310 -12.4310 -12.4310 -12.4021 -12.4021 -12.4021 -12.4021
   -12.3796 -12.3796 -12.3796 -12.3796 -12.3497 -12.3497 -12.3497 -12.3497
   -12.2925 -12.2925 -12.2925 -12.2925 -12.2917 -12.2917 -12.2917 -12.2917
   -12.2906 -12.2906 -12.2906 -12.2906 -12.2896 -12.2896 -12.2896 -12.2896
   -12.2882 -12.2882 -12.2882 -12.2882 -12.2876 -12.2876 -12.2876 -12.2876
   -10.1883 -10.1883 -10.1883 -10.1883 -10.0558 -10.0558 -10.0558 -10.0558
    -9.9819  -9.9819  -9.9819  -9.9819  -9.9392  -9.9392  -9.9392  -9.9392
    -9.8749  -9.8749  -9.8748  -9.8748  -9.7077  -9.7077  -9.7077  -9.7077
    -3.9933  -3.9933  -3.9933  -3.9933  -3.5690  -3.5690  -3.5690  -3.5690
    -3.5496  -3.5496  -3.5496  -3.5496  -3.5390  -3.5390  -3.5390  -3.5390
    -3.5317  -3.5317  -3.5317  -3.5317  -3.5252  -3.5252  -3.5252  -3.5252
    -3.5225  -3.5225  -3.5225  -3.5225  -3.4073  -3.4073  -3.4073  -3.4073
     0.2848   0.2848   0.2848   0.2848   0.4221   0.4221   0.4222   0.4222
     0.5496   0.5496   0.5496   0.5496   1.4187   1.4187   1.4187   1.4187
     1.4802   1.4802   1.4802   1.4802   1.6782   1.6782   1.6782   1.6782
     1.8541   1.8541   1.8541   1.8541   2.0180   2.0180   2.0181   2.0181
     2.0848   2.0848   2.0850   2.0850   2.1682   2.1682   2.1683   2.1683
     2.2022   2.2022   2.2022   2.2022   2.2523   2.2523   2.2523   2.2523
     2.2934   2.2934   2.2935   2.2935   2.3283   2.3283   2.3283   2.3283
     2.3796   2.3796   2.3797   2.3797   2.5882   2.5882   2.5883   2.5883
     2.8252   2.8252   2.8252   2.8252   3.3616   3.3616   3.3616   3.3616

          k = 0.3000-0.4972 0.2620 ( 31972 PWs)   bands (ev):

   -55.9894 -55.9894 -55.9894 -55.9894 -55.9890 -55.9890 -55.9890 -55.9890
   -55.9747 -55.9747 -55.9746 -55.9746 -55.9743 -55.9743 -55.9742 -55.9742
   -55.9742 -55.9742 -55.9741 -55.9741 -55.9738 -55.9738 -55.9738 -55.9738
   -55.9688 -55.9688 -55.9688 -55.9688 -55.9684 -55.9684 -55.9684 -55.9684
   -55.9669 -55.9669 -55.9668 -55.9668 -55.9665 -55.9665 -55.9665 -55.9665
   -55.9543 -55.9543 -55.9542 -55.9542 -55.9540 -55.9540 -55.9539 -55.9539
   -55.9539 -55.9539 -55.9538 -55.9538 -55.9537 -55.9537 -55.9536 -55.9536
   -55.9535 -55.9535 -55.9534 -55.9534 -55.9532 -55.9532 -55.9531 -55.9531
   -55.9531 -55.9531 -55.9530 -55.9530 -55.9529 -55.9529 -55.9528 -55.9528
   -55.9092 -55.9092 -55.9092 -55.9092 -55.9090 -55.9090 -55.9090 -55.9090
   -55.9088 -55.9088 -55.9088 -55.9088 -55.9086 -55.9086 -55.9086 -55.9086
   -55.8978 -55.8978 -55.8977 -55.8977 -55.8975 -55.8975 -55.8975 -55.8975
   -55.8974 -55.8974 -55.8974 -55.8974 -55.8973 -55.8973 -55.8973 -55.8973
   -55.8972 -55.8972 -55.8972 -55.8972 -55.8971 -55.8971 -55.8970 -55.8970
   -55.8970 -55.8970 -55.8969 -55.8969 -55.8968 -55.8968 -55.8967 -55.8967
   -16.7326 -16.7326 -16.7326 -16.7326 -16.7321 -16.7321 -16.7321 -16.7321
   -12.4191 -12.4191 -12.4191 -12.4191 -12.4071 -12.4071 -12.4071 -12.4071
   -12.3747 -12.3747 -12.3747 -12.3747 -12.3624 -12.3624 -12.3624 -12.3624
   -12.2924 -12.2924 -12.2924 -12.2924 -12.2918 -12.2918 -12.2918 -12.2918
   -12.2904 -12.2904 -12.2904 -12.2904 -12.2898 -12.2898 -12.2898 -12.2898
   -12.2882 -12.2882 -12.2882 -12.2882 -12.2877 -12.2877 -12.2877 -12.2877
   -10.1654 -10.1654 -10.1654 -10.1654 -10.1197 -10.1197 -10.1197 -10.1197
    -9.9508  -9.9508  -9.9507  -9.9507  -9.9420  -9.9420  -9.9419  -9.9419
    -9.8189  -9.8189  -9.8189  -9.8189  -9.7499  -9.7499  -9.7499  -9.7499
    -3.8606  -3.8606  -3.8606  -3.8606  -3.6561  -3.6561  -3.6561  -3.6561
    -3.5488  -3.5488  -3.5487  -3.5487  -3.5461  -3.5461  -3.5461  -3.5461
    -3.5337  -3.5337  -3.5336  -3.5336  -3.5279  -3.5279  -3.5278  -3.5278
    -3.5182  -3.5182  -3.5182  -3.5182  -3.4993  -3.4993  -3.4993  -3.4993
     0.4402   0.4402   0.4402   0.4402   0.4986   0.4986   0.4986   0.4986
     0.7547   0.7547   0.7548   0.7548   1.3423   1.3423   1.3424   1.3424
     1.4579   1.4579   1.4579   1.4579   1.4838   1.4838   1.4838   1.4838
     1.8278   1.8278   1.8279   1.8279   1.9039   1.9039   1.9039   1.9039
     2.0694   2.0694   2.0694   2.0694   2.1345   2.1345   2.1346   2.1346
     2.2182   2.2182   2.2184   2.2184   2.2423   2.2423   2.2424   2.2424
     2.3481   2.3481   2.3482   2.3482   2.3593   2.3593   2.3594   2.3594
     2.4605   2.4605   2.4605   2.4605   2.5578   2.5578   2.5578   2.5578
     2.8590   2.8590   2.8590   2.8590   3.0288   3.0288   3.0289   3.0289

          k =-0.5000 0.0994 0.0873 ( 31936 PWs)   bands (ev):

   -55.9894 -55.9894 -55.9893 -55.9893 -55.9889 -55.9889 -55.9887 -55.9887
   -55.9745 -55.9745 -55.9744 -55.9744 -55.9742 -55.9742 -55.9741 -55.9741
   -55.9741 -55.9741 -55.9740 -55.9740 -55.9738 -55.9738 -55.9737 -55.9737
   -55.9687 -55.9687 -55.9686 -55.9686 -55.9683 -55.9683 -55.9683 -55.9683
   -55.9668 -55.9668 -55.9668 -55.9668 -55.9665 -55.9665 -55.9664 -55.9664
   -55.9543 -55.9543 -55.9542 -55.9542 -55.9540 -55.9540 -55.9539 -55.9539
   -55.9538 -55.9538 -55.9538 -55.9538 -55.9537 -55.9537 -55.9536 -55.9536
   -55.9535 -55.9535 -55.9534 -55.9534 -55.9532 -55.9532 -55.9531 -55.9531
   -55.9531 -55.9531 -55.9530 -55.9530 -55.9529 -55.9529 -55.9528 -55.9528
   -55.9093 -55.9093 -55.9093 -55.9093 -55.9091 -55.9091 -55.9089 -55.9089
   -55.9089 -55.9089 -55.9087 -55.9087 -55.9087 -55.9087 -55.9084 -55.9084
   -55.8977 -55.8977 -55.8977 -55.8977 -55.8975 -55.8975 -55.8974 -55.8974
   -55.8973 -55.8973 -55.8973 -55.8973 -55.8973 -55.8973 -55.8972 -55.8972
   -55.8971 -55.8971 -55.8970 -55.8970 -55.8970 -55.8970 -55.8969 -55.8969
   -55.8969 -55.8969 -55.8968 -55.8968 -55.8966 -55.8966 -55.8965 -55.8965
   -16.7331 -16.7331 -16.7331 -16.7331 -16.7317 -16.7317 -16.7317 -16.7317
   -12.4232 -12.4232 -12.4232 -12.4232 -12.3916 -12.3916 -12.3916 -12.3916
   -12.3873 -12.3873 -12.3873 -12.3873 -12.3604 -12.3604 -12.3604 -12.3604
   -12.2925 -12.2925 -12.2925 -12.2925 -12.2917 -12.2917 -12.2917 -12.2917
   -12.2906 -12.2906 -12.2906 -12.2906 -12.2896 -12.2896 -12.2896 -12.2896
   -12.2883 -12.2883 -12.2883 -12.2883 -12.2877 -12.2877 -12.2877 -12.2877
   -10.2255 -10.2255 -10.2255 -10.2255 -10.0896 -10.0896 -10.0896 -10.0896
    -9.9769  -9.9769  -9.9769  -9.9769  -9.8583  -9.8583  -9.8583  -9.8583
    -9.8407  -9.8407  -9.8407  -9.8407  -9.7481  -9.7481  -9.7481  -9.7481
    -4.0178  -4.0178  -4.0178  -4.0178  -3.5794  -3.5794  -3.5793  -3.5793
    -3.5562  -3.5562  -3.5561  -3.5561  -3.5484  -3.5484  -3.5483  -3.5483
    -3.5345  -3.5345  -3.5345  -3.5345  -3.5226  -3.5226  -3.5225  -3.5225
    -3.5182  -3.5182  -3.5181  -3.5181  -3.4446  -3.4446  -3.4446  -3.4446
     0.2949   0.2949   0.2949   0.2949   0.7496   0.7496   0.7496   0.7496
     0.8707   0.8707   0.8707   0.8707   1.2675   1.2675   1.2675   1.2675
     1.3676   1.3676   1.3676   1.3676   1.4865   1.4865   1.4865   1.4865
     1.7928   1.7928   1.7928   1.7928   1.9493   1.9493   1.9494   1.9494
     2.0146   2.0146   2.0146   2.0146   2.1235   2.1235   2.1235   2.1235
     2.2330   2.2330   2.2331   2.2331   2.3087   2.3087   2.3088   2.3088
     2.3379   2.3379   2.3380   2.3380   2.4204   2.4204   2.4205   2.4205
     2.4754   2.4754   2.4755   2.4755   2.5542   2.5542   2.5542   2.5542
     2.6810   2.6810   2.6810   2.6810   3.1875   3.1875   3.1876   3.1876

          k =-0.5000 0.0994 0.2620 ( 31958 PWs)   bands (ev):

   -55.9895 -55.9895 -55.9894 -55.9894 -55.9891 -55.9891 -55.9890 -55.9890
   -55.9746 -55.9746 -55.9745 -55.9745 -55.9742 -55.9742 -55.9741 -55.9741
   -55.9741 -55.9741 -55.9740 -55.9740 -55.9739 -55.9739 -55.9738 -55.9738
   -55.9688 -55.9688 -55.9687 -55.9687 -55.9684 -55.9684 -55.9683 -55.9683
   -55.9667 -55.9667 -55.9667 -55.9667 -55.9664 -55.9664 -55.9663 -55.9663
   -55.9543 -55.9543 -55.9542 -55.9542 -55.9540 -55.9540 -55.9539 -55.9539
   -55.9539 -55.9539 -55.9538 -55.9538 -55.9537 -55.9537 -55.9536 -55.9536
   -55.9535 -55.9535 -55.9534 -55.9534 -55.9532 -55.9532 -55.9531 -55.9531
   -55.9531 -55.9531 -55.9530 -55.9530 -55.9529 -55.9529 -55.9528 -55.9528
   -55.9093 -55.9093 -55.9092 -55.9092 -55.9091 -55.9091 -55.9089 -55.9089
   -55.9089 -55.9089 -55.9087 -55.9087 -55.9087 -55.9087 -55.9084 -55.9084
   -55.8977 -55.8977 -55.8977 -55.8977 -55.8975 -55.8975 -55.8974 -55.8974
   -55.8974 -55.8974 -55.8974 -55.8974 -55.8973 -55.8973 -55.8972 -55.8972
   -55.8971 -55.8971 -55.8971 -55.8971 -55.8970 -55.8970 -55.8970 -55.8970
   -55.8969 -55.8969 -55.8969 -55.8969 -55.8967 -55.8967 -55.8966 -55.8966
   -16.7328 -16.7328 -16.7327 -16.7327 -16.7321 -16.7321 -16.7320 -16.7320
   -12.4080 -12.4080 -12.4080 -12.4080 -12.3941 -12.3941 -12.3941 -12.3941
   -12.3857 -12.3857 -12.3857 -12.3857 -12.3754 -12.3754 -12.3754 -12.3754
   -12.2924 -12.2924 -12.2924 -12.2924 -12.2918 -12.2918 -12.2918 -12.2918
   -12.2904 -12.2904 -12.2904 -12.2904 -12.2898 -12.2898 -12.2898 -12.2898
   -12.2882 -12.2882 -12.2882 -12.2882 -12.2877 -12.2877 -12.2877 -12.2877
   -10.2023 -10.2023 -10.2023 -10.2023 -10.1553 -10.1553 -10.1553 -10.1553
    -9.8975  -9.8975  -9.8975  -9.8975  -9.8625  -9.8625  -9.8625  -9.8625
    -9.8321  -9.8321  -9.8321  -9.8321  -9.7885  -9.7885  -9.7885  -9.7885
    -3.8850  -3.8850  -3.8850  -3.8850  -3.6771  -3.6771  -3.6771  -3.6771
    -3.5565  -3.5565  -3.5565  -3.5565  -3.5544  -3.5544  -3.5544  -3.5544
    -3.5354  -3.5354  -3.5353  -3.5353  -3.5305  -3.5305  -3.5305  -3.5305
    -3.5202  -3.5202  -3.5201  -3.5201  -3.5131  -3.5131  -3.5131  -3.5131
     0.6679   0.6679   0.6679   0.6679   0.8117   0.8117   0.8118   0.8118
     0.8332   0.8332   0.8332   0.8332   1.2002   1.2002   1.2002   1.2002
     1.3148   1.3148   1.3149   1.3149   1.4028   1.4028   1.4028   1.4028
     1.8338   1.8338   1.8338   1.8338   1.9346   1.9346   1.9347   1.9347
     1.9625   1.9625   1.9625   1.9625   2.0308   2.0308   2.0308   2.0308
     2.2382   2.2382   2.2383   2.2383   2.2926   2.2926   2.2926   2.2926
     2.4192   2.4192   2.4193   2.4193   2.4373   2.4373   2.4374   2.4374
     2.4822   2.4822   2.4822   2.4822   2.5369   2.5369   2.5370   2.5370
     2.6928   2.6928   2.6928   2.6928   2.8237   2.8237   2.8237   2.8237

          k =-0.5000 0.2983 0.0873 ( 31920 PWs)   bands (ev):

   -55.9894 -55.9894 -55.9894 -55.9894 -55.9889 -55.9889 -55.9888 -55.9888
   -55.9746 -55.9746 -55.9745 -55.9745 -55.9742 -55.9742 -55.9741 -55.9741
   -55.9741 -55.9741 -55.9740 -55.9740 -55.9738 -55.9738 -55.9737 -55.9737
   -55.9687 -55.9687 -55.9687 -55.9687 -55.9683 -55.9683 -55.9683 -55.9683
   -55.9668 -55.9668 -55.9667 -55.9667 -55.9664 -55.9664 -55.9663 -55.9663
   -55.9542 -55.9542 -55.9542 -55.9542 -55.9539 -55.9539 -55.9538 -55.9538
   -55.9538 -55.9538 -55.9538 -55.9538 -55.9536 -55.9536 -55.9536 -55.9536
   -55.9535 -55.9535 -55.9534 -55.9534 -55.9532 -55.9532 -55.9531 -55.9531
   -55.9530 -55.9530 -55.9529 -55.9529 -55.9528 -55.9528 -55.9527 -55.9527
   -55.9092 -55.9092 -55.9092 -55.9092 -55.9090 -55.9090 -55.9088 -55.9088
   -55.9088 -55.9088 -55.9088 -55.9088 -55.9086 -55.9086 -55.9084 -55.9084
   -55.8978 -55.8978 -55.8977 -55.8977 -55.8975 -55.8975 -55.8974 -55.8974
   -55.8973 -55.8973 -55.8973 -55.8973 -55.8972 -55.8972 -55.8972 -55.8972
   -55.8971 -55.8971 -55.8970 -55.8970 -55.8970 -55.8970 -55.8969 -55.8969
   -55.8969 -55.8969 -55.8968 -55.8968 -55.8966 -55.8966 -55.8966 -55.8966
   -16.7330 -16.7330 -16.7330 -16.7330 -16.7317 -16.7317 -16.7317 -16.7317
   -12.4310 -12.4310 -12.4310 -12.4310 -12.4021 -12.4021 -12.4021 -12.4021
   -12.3796 -12.3796 -12.3796 -12.3796 -12.3497 -12.3497 -12.3497 -12.3497
   -12.2925 -12.2925 -12.2925 -12.2925 -12.2917 -12.2917 -12.2917 -12.2917
   -12.2906 -12.2906 -12.2906 -12.2906 -12.2896 -12.2896 -12.2896 -12.2896
   -12.2882 -12.2882 -12.2882 -12.2882 -12.2876 -12.2876 -12.2876 -12.2876
   -10.1889 -10.1889 -10.1888 -10.1888 -10.0566 -10.0566 -10.0566 -10.0566
    -9.9822  -9.9822  -9.9822  -9.9822  -9.9385  -9.9385  -9.9385  -9.9385
    -9.8739  -9.8739  -9.8739  -9.8739  -9.7076  -9.7076  -9.7076  -9.7076
    -3.9927  -3.9927  -3.9927  -3.9927  -3.5663  -3.5663  -3.5663  -3.5663
    -3.5504  -3.5504  -3.5503  -3.5503  -3.5417  -3.5417  -3.5416  -3.5416
    -3.5321  -3.5321  -3.5321  -3.5321  -3.5242  -3.5242  -3.5242  -3.5242
    -3.5206  -3.5206  -3.5206  -3.5206  -3.4092  -3.4092  -3.4092  -3.4092
     0.2842   0.2842   0.2842   0.2842   0.4223   0.4223   0.4224   0.4224
     0.5520   0.5520   0.5520   0.5520   1.4068   1.4068   1.4069   1.4069
     1.4774   1.4774   1.4774   1.4774   1.6859   1.6859   1.6859   1.6859
     1.8526   1.8526   1.8526   1.8526   2.0092   2.0092   2.0093   2.0093
     2.0770   2.0770   2.0770   2.0770   2.1709   2.1709   2.1709   2.1709
     2.2193   2.2193   2.2194   2.2194   2.2695   2.2695   2.2696   2.2696
     2.2928   2.2928   2.2929   2.2929   2.3191   2.3191   2.3191   2.3191
     2.3779   2.3779   2.3779   2.3779   2.6067   2.6067   2.6068   2.6068
     2.8080   2.8080   2.8080   2.8080   3.3568   3.3568   3.3569   3.3569

          k =-0.5000 0.2983 0.2620 ( 31958 PWs)   bands (ev):

   -55.9895 -55.9895 -55.9894 -55.9894 -55.9891 -55.9891 -55.9890 -55.9890
   -55.9746 -55.9746 -55.9746 -55.9746 -55.9742 -55.9742 -55.9742 -55.9742
   -55.9741 -55.9741 -55.9741 -55.9741 -55.9738 -55.9738 -55.9737 -55.9737
   -55.9688 -55.9688 -55.9687 -55.9687 -55.9684 -55.9684 -55.9684 -55.9684
   -55.9668 -55.9668 -55.9668 -55.9668 -55.9665 -55.9665 -55.9664 -55.9664
   -55.9543 -55.9543 -55.9542 -55.9542 -55.9540 -55.9540 -55.9539 -55.9539
   -55.9538 -55.9538 -55.9538 -55.9538 -55.9537 -55.9537 -55.9536 -55.9536
   -55.9535 -55.9535 -55.9534 -55.9534 -55.9532 -55.9532 -55.9532 -55.9532
   -55.9531 -55.9531 -55.9530 -55.9530 -55.9529 -55.9529 -55.9528 -55.9528
   -55.9092 -55.9092 -55.9092 -55.9092 -55.9090 -55.9090 -55.9088 -55.9088
   -55.9088 -55.9088 -55.9088 -55.9088 -55.9086 -55.9086 -55.9084 -55.9084
   -55.8978 -55.8978 -55.8977 -55.8977 -55.8975 -55.8975 -55.8975 -55.8975
   -55.8974 -55.8974 -55.8973 -55.8973 -55.8973 -55.8973 -55.8973 -55.8973
   -55.8972 -55.8972 -55.8971 -55.8971 -55.8971 -55.8971 -55.8970 -55.8970
   -55.8970 -55.8970 -55.8969 -55.8969 -55.8967 -55.8967 -55.8967 -55.8967
   -16.7327 -16.7327 -16.7326 -16.7326 -16.7321 -16.7321 -16.7320 -16.7320
   -12.4191 -12.4191 -12.4191 -12.4191 -12.4071 -12.4071 -12.4070 -12.4070
   -12.3747 -12.3747 -12.3747 -12.3747 -12.3624 -12.3624 -12.3624 -12.3624
   -12.2924 -12.2924 -12.2924 -12.2924 -12.2918 -12.2918 -12.2918 -12.2918
   -12.2904 -12.2904 -12.2904 -12.2904 -12.2898 -12.2898 -12.2898 -12.2898
   -12.2882 -12.2882 -12.2882 -12.2882 -12.2877 -12.2877 -12.2877 -12.2877
   -10.1661 -10.1661 -10.1660 -10.1660 -10.1203 -10.1203 -10.1203 -10.1203
    -9.9514  -9.9514  -9.9514  -9.9514  -9.9404  -9.9404  -9.9404  -9.9404
    -9.8186  -9.8186  -9.8185  -9.8185  -9.7498  -9.7498  -9.7498  -9.7498
    -3.8600  -3.8600  -3.8600  -3.8600  -3.6547  -3.6547  -3.6547  -3.6547
    -3.5503  -3.5503  -3.5502  -3.5502  -3.5466  -3.5466  -3.5465  -3.5465
    -3.5320  -3.5320  -3.5320  -3.5320  -3.5263  -3.5263  -3.5263  -3.5263
    -3.5191  -3.5191  -3.5190  -3.5190  -3.5012  -3.5012  -3.5012  -3.5012
     0.4401   0.4401   0.4401   0.4401   0.4996   0.4996   0.4997   0.4997
     0.7531   0.7531   0.7531   0.7531   1.3346   1.3346   1.3347   1.3347
     1.4578   1.4578   1.4578   1.4578   1.4819   1.4819   1.4819   1.4819
     1.8185   1.8185   1.8185   1.8185   1.9102   1.9102   1.9102   1.9102
     2.0559   2.0559   2.0560   2.0560   2.1477   2.1477   2.1478   2.1478
     2.2386   2.2386   2.2387   2.2387   2.2708   2.2708   2.2708   2.2708
     2.3315   2.3315   2.3316   2.3316   2.3542   2.3542   2.3542   2.3542
     2.4614   2.4614   2.4614   2.4614   2.5649   2.5649   2.5650   2.5650
     2.8451   2.8451   2.8452   2.8452   3.0195   3.0195   3.0196   3.0196

          k =-0.5000-0.4972 0.0873 ( 31888 PWs)   bands (ev):

   -55.9894 -55.9894 -55.9894 -55.9894 -55.9888 -55.9888 -55.9888 -55.9888
   -55.9747 -55.9747 -55.9746 -55.9746 -55.9743 -55.9743 -55.9742 -55.9742
   -55.9742 -55.9742 -55.9742 -55.9742 -55.9738 -55.9738 -55.9737 -55.9737
   -55.9687 -55.9687 -55.9686 -55.9686 -55.9683 -55.9683 -55.9682 -55.9682
   -55.9666 -55.9666 -55.9666 -55.9666 -55.9662 -55.9662 -55.9662 -55.9662
   -55.9542 -55.9542 -55.9541 -55.9541 -55.9539 -55.9539 -55.9538 -55.9538
   -55.9537 -55.9537 -55.9536 -55.9536 -55.9535 -55.9535 -55.9534 -55.9534
   -55.9534 -55.9534 -55.9533 -55.9533 -55.9531 -55.9531 -55.9530 -55.9530
   -55.9529 -55.9529 -55.9528 -55.9528 -55.9527 -55.9527 -55.9526 -55.9526
   -55.9091 -55.9091 -55.9091 -55.9091 -55.9090 -55.9090 -55.9090 -55.9090
   -55.9087 -55.9087 -55.9087 -55.9087 -55.9086 -55.9086 -55.9086 -55.9086
   -55.8977 -55.8977 -55.8976 -55.8976 -55.8974 -55.8974 -55.8974 -55.8974
   -55.8973 -55.8973 -55.8973 -55.8973 -55.8971 -55.8971 -55.8971 -55.8971
   -55.8970 -55.8970 -55.8970 -55.8970 -55.8969 -55.8969 -55.8969 -55.8969
   -55.8968 -55.8968 -55.8968 -55.8968 -55.8966 -55.8966 -55.8966 -55.8966
   -16.7330 -16.7330 -16.7330 -16.7330 -16.7317 -16.7317 -16.7317 -16.7317
   -12.4348 -12.4348 -12.4348 -12.4348 -12.4069 -12.4069 -12.4069 -12.4069
   -12.3759 -12.3759 -12.3759 -12.3759 -12.3449 -12.3449 -12.3449 -12.3449
   -12.2925 -12.2925 -12.2925 -12.2925 -12.2917 -12.2917 -12.2917 -12.2917
   -12.2906 -12.2906 -12.2906 -12.2906 -12.2896 -12.2896 -12.2896 -12.2896
   -12.2882 -12.2882 -12.2882 -12.2882 -12.2876 -12.2876 -12.2876 -12.2876
   -10.1556 -10.1556 -10.1556 -10.1556 -10.0218 -10.0218 -10.0218 -10.0218
    -9.9946  -9.9946  -9.9946  -9.9946  -9.9889  -9.9889  -9.9889  -9.9889
    -9.8998  -9.8998  -9.8998  -9.8998  -9.6922  -9.6922  -9.6922  -9.6922
    -3.9772  -3.9772  -3.9772  -3.9772  -3.5552  -3.5552  -3.5552  -3.5552
    -3.5538  -3.5538  -3.5538  -3.5538  -3.5372  -3.5372  -3.5372  -3.5372
    -3.5283  -3.5283  -3.5283  -3.5283  -3.5227  -3.5227  -3.5226  -3.5226
    -3.5221  -3.5221  -3.5221  -3.5221  -3.3879  -3.3879  -3.3879  -3.3879
     0.2772   0.2772   0.2772   0.2772   0.2796   0.2796   0.2796   0.2796
     0.4269   0.4269   0.4269   0.4269   1.3823   1.3823   1.3823   1.3823
     1.5383   1.5383   1.5383   1.5383   1.8358   1.8358   1.8358   1.8358
     1.9024   1.9024   1.9024   1.9024   2.0455   2.0455   2.0455   2.0455
     2.0786   2.0786   2.0786   2.0786   2.1389   2.1389   2.1389   2.1389
     2.2184   2.2184   2.2184   2.2184   2.2390   2.2390   2.2390   2.2390
     2.2682   2.2682   2.2683   2.2683   2.2749   2.2749   2.2749   2.2749
     2.3050   2.3050   2.3050   2.3050   2.6473   2.6473   2.6473   2.6473
     2.9217   2.9217   2.9217   2.9217   3.4806   3.4806   3.4806   3.4806

          k =-0.5000-0.4972 0.2620 ( 31968 PWs)   bands (ev):

   -55.9894 -55.9894 -55.9894 -55.9894 -55.9890 -55.9890 -55.9889 -55.9889
   -55.9747 -55.9747 -55.9746 -55.9746 -55.9743 -55.9743 -55.9742 -55.9742
   -55.9742 -55.9742 -55.9742 -55.9742 -55.9739 -55.9739 -55.9738 -55.9738
   -55.9688 -55.9688 -55.9688 -55.9688 -55.9685 -55.9685 -55.9684 -55.9684
   -55.9668 -55.9668 -55.9668 -55.9668 -55.9665 -55.9665 -55.9665 -55.9665
   -55.9543 -55.9543 -55.9542 -55.9542 -55.9540 -55.9540 -55.9539 -55.9539
   -55.9538 -55.9538 -55.9538 -55.9538 -55.9537 -55.9537 -55.9536 -55.9536
   -55.9535 -55.9535 -55.9534 -55.9534 -55.9532 -55.9532 -55.9531 -55.9531
   -55.9531 -55.9531 -55.9530 -55.9530 -55.9529 -55.9529 -55.9528 -55.9528
   -55.9092 -55.9092 -55.9091 -55.9091 -55.9090 -55.9090 -55.9090 -55.9090
   -55.9088 -55.9088 -55.9088 -55.9088 -55.9087 -55.9087 -55.9087 -55.9087
   -55.8978 -55.8978 -55.8977 -55.8977 -55.8975 -55.8975 -55.8975 -55.8975
   -55.8974 -55.8974 -55.8974 -55.8974 -55.8973 -55.8973 -55.8973 -55.8973
   -55.8972 -55.8972 -55.8971 -55.8971 -55.8971 -55.8971 -55.8970 -55.8970
   -55.8969 -55.8969 -55.8969 -55.8969 -55.8967 -55.8967 -55.8967 -55.8967
   -16.7326 -16.7326 -16.7326 -16.7326 -16.7321 -16.7321 -16.7320 -16.7320
   -12.4237 -12.4237 -12.4237 -12.4237 -12.4121 -12.4121 -12.4121 -12.4121
   -12.3701 -12.3701 -12.3701 -12.3701 -12.3572 -12.3572 -12.3572 -12.3572
   -12.2924 -12.2924 -12.2924 -12.2924 -12.2919 -12.2919 -12.2919 -12.2919
   -12.2904 -12.2904 -12.2904 -12.2904 -12.2898 -12.2898 -12.2898 -12.2898
   -12.2882 -12.2882 -12.2882 -12.2882 -12.2876 -12.2876 -12.2876 -12.2876
   -10.1320 -10.1320 -10.1320 -10.1320 -10.0850 -10.0850 -10.0850 -10.0850
    -9.9932  -9.9932  -9.9932  -9.9932  -9.9910  -9.9910  -9.9910  -9.9910
    -9.8139  -9.8139  -9.8139  -9.8139  -9.7366  -9.7366  -9.7366  -9.7366
    -3.8445  -3.8445  -3.8445  -3.8445  -3.6419  -3.6419  -3.6419  -3.6419
    -3.5452  -3.5452  -3.5452  -3.5452  -3.5417  -3.5417  -3.5417  -3.5417
    -3.5311  -3.5311  -3.5311  -3.5311  -3.5265  -3.5265  -3.5265  -3.5265
    -3.5164  -3.5164  -3.5164  -3.5164  -3.4912  -3.4912  -3.4912  -3.4912
     0.3148   0.3148   0.3148   0.3148   0.3703   0.3703   0.3703   0.3703
     0.7452   0.7452   0.7452   0.7452   1.3688   1.3688   1.3688   1.3688
     1.4470   1.4470   1.4470   1.4470   1.5258   1.5258   1.5258   1.5258
     1.8848   1.8848   1.8848   1.8848   1.9186   1.9186   1.9186   1.9186
     2.1416   2.1416   2.1416   2.1416   2.1884   2.1884   2.1884   2.1884
     2.2145   2.2145   2.2145   2.2145   2.2221   2.2221   2.2221   2.2221
     2.2630   2.2630   2.2630   2.2630   2.2786   2.2786   2.2786   2.2786
     2.4454   2.4454   2.4454   2.4454   2.5807   2.5807   2.5807   2.5807
     2.9802   2.9802   2.9802   2.9802   3.1646   3.1646   3.1646   3.1646

     highest occupied level (ev):     3.9544

!    total energy              =   -4345.79146041 Ry
     estimated scf accuracy    <       0.00000002 Ry

     The total energy is the sum of the following terms:
     one-electron contribution =   -3809.87931428 Ry
     hartree contribution      =    1925.24383834 Ry
     xc contribution           =    -575.43730144 Ry
     ewald contribution        =   -1885.71868303 Ry

     convergence has been achieved in   9 iterations

     Writing output data file ../CsPbBr3/unified.save/

     init_run     :    681.86s CPU    688.07s WALL (       1 calls)
     electrons    :  25660.13s CPU  25839.60s WALL (       1 calls)

     Called by init_run:
     wfcinit      :    665.00s CPU    670.27s WALL (       1 calls)
     potinit      :      3.38s CPU      3.46s WALL (       1 calls)
     hinit0       :      5.96s CPU      6.01s WALL (       1 calls)

     Called by electrons:
     c_bands      :  23924.41s CPU  24068.78s WALL (      10 calls)
     sum_band     :   1661.02s CPU   1687.36s WALL (      10 calls)
     v_of_rho     :      4.32s CPU      4.61s WALL (      10 calls)
     newd         :     73.02s CPU     82.04s WALL (      10 calls)
     mix_rho      :      3.09s CPU      3.23s WALL (      10 calls)

     Called by c_bands:
     init_us_2    :      7.58s CPU      7.63s WALL (     378 calls)
     cegterg      :  23826.94s CPU  23964.84s WALL (     180 calls)

     Called by *egterg:
     cdiaghg      :    342.14s CPU    342.58s WALL (     883 calls)
     h_psi        :   7837.07s CPU   7908.50s WALL (     919 calls)
     s_psi        :   2572.68s CPU   2580.66s WALL (     919 calls)
     g_psi        :     10.27s CPU     10.31s WALL (     721 calls)

     Called by h_psi:
     h_psi:calbec :   2576.50s CPU   2584.58s WALL (     919 calls)
     vloc_psi     :   2653.55s CPU   2702.79s WALL (     919 calls)
     add_vuspsi   :   2596.45s CPU   2604.10s WALL (     919 calls)

     General routines
     calbec       :   3485.31s CPU   3495.95s WALL (    1099 calls)
     fft          :      6.53s CPU      6.84s WALL (     210 calls)
     ffts         :      0.68s CPU      0.70s WALL (      80 calls)
     fftw         :   2592.10s CPU   2640.31s WALL (  711356 calls)
     interpolate  :      1.61s CPU      1.67s WALL (      40 calls)

     Parallel routines
     fft_scatt_xy :    314.64s CPU    320.19s WALL (  711646 calls)
     fft_scatt_yz :    465.31s CPU    475.60s WALL (  711646 calls)

     PWSCF        :      7h19m CPU      7h22m WALL


   This run was terminated on:   7:30:16  26Oct2020            

=------------------------------------------------------------------------------=
   JOB DONE.
=------------------------------------------------------------------------------=
